71
# ORCA AIMD Position Step 0, t=0.00 fs, E_Pot=-89.85368617 Hartree, Unit is Angstrom
 C      0.3930390514     -1.6769307261      3.1387680695
 C      1.7754837050     -1.0540639599      3.0663698130
 C      2.7594088126     -1.9587229994      2.3386917153
 C      4.1888415046     -1.4652454765      2.3817294176
 C      4.6486087504     -0.9096140306      3.7285245006
 C      5.8494282464     -0.0351189002      3.3384351931
 C      5.6749095292      0.2137861442      1.7924753661
 O      4.3803572360     -0.3810323477      1.4789135979
 C      6.7410827493     -0.4989405585      0.9588024738
 C      6.7271519812     -0.0598438094     -0.4914666353
 C      7.0839698483      1.4062057126     -0.5380911769
 C      6.9286620027      2.1127562634     -1.8841223994
 C      8.0305016582      1.7997308572     -2.9044787275
 C      8.5444961524      2.9992946153     -3.6309443719
 C      8.5707459857      4.2181662463     -3.0940819424
 C      9.0608093195      5.4256997810     -3.8157196674
 C      7.8851680011      6.3717563400     -4.0848096131
 C      7.0060526677      6.5258458938     -2.8268101019
 C      7.6518619286      5.9608776013     -1.5713497931
 C      8.0156889533      4.4677450570     -1.7036023597
 C      6.7438665337      3.6069869607     -1.5411188702
 C      6.1111786587      3.6089442173     -0.1360635443
 C      6.2143847172      2.2006833411      0.3901570281
 C      5.5490430309      1.6834779957      1.4273492706
 C      4.5640900380      2.4954271234      2.2095502943
 C      9.1045501882      4.1288335549     -0.6814175200
 O      7.1267218382      5.9221760958     -5.2074040972
 C      7.1716918587     -0.6301018091      3.7899396830
 N      3.6469850109     -0.1167801187      4.4342551343
 C      2.3301119496     -0.7378385884      4.4525421732
 H      0.0015374289     -1.8940747956      2.1448892090
 H     -0.3166281037     -1.0161115439      3.6373045326
 H      0.4153920298     -2.6163549488      3.6945805713
 H      1.7044633475     -0.1110965153      2.5155491424
 H      2.4627227715     -2.1049927634      1.2987172973
 H      2.7383781479     -2.9463636135      2.8090763833
 H      4.8517450328     -2.2980221087      2.1020703242
 H      4.9502680807     -1.7285560193      4.3872404533
 H      5.7457296703      0.9132333799      3.8605005695
 H      6.5945302572     -1.5750799214      1.0440084746
 H      7.7295914955     -0.2900692009      1.3672719226
 H      5.7322803655     -0.2095731801     -0.9151710912
 H      7.4276707442     -0.6553922169     -1.0797508057
 H      8.1293812386      1.5129666004     -0.2213979082
 H      5.9771339890      1.7767685808     -2.3027113252
 H      7.6844003216      1.0529241024     -3.6192856027
 H      8.8707595660      1.3217813819     -2.3868596838
 H      8.9647402795      2.8450037389     -4.6199931078
 H      9.5330706146      5.1707670120     -4.7627614593
 H      9.8076847625      5.9503279829     -3.2137145202
 H      8.2749571231      7.3410757022     -4.3949957777
 H      6.0644016144      6.0119607308     -3.0223867722
 H      6.7412902379      7.5724281069     -2.6769565694
 H      6.9917582161      6.1020758022     -0.7150924433
 H      8.5536041397      6.5306824550     -1.3394923530
 H      6.0270401775      4.0204052848     -2.2491028437
 H      5.0719393008      3.9321301871     -0.1896614769
 H      6.6022649201      4.3187365289      0.5313057977
 H      4.3662012474      3.4544038158      1.7412235403
 H      4.9000732331      2.7063261513      3.2261164705
 H      3.6162825291      1.9628135758      2.2796571598
 H      9.9776910250      4.7600379502     -0.8437081288
 H      9.4309909504      3.0961555861     -0.7671609895
 H      8.7671093213      4.2940201235      0.3414489218
 H      6.9147147234      4.9927745123     -5.0420039019
 H      7.3500820503     -1.6192541273      3.3701664828
 H      7.1703891525     -0.7289963963      4.8746482450
 H      8.0148331856      0.0053102004      3.5239635130
 H      3.5707498225      0.7812860376      3.9755366039
 H      1.6489284526     -0.0806278690      4.9961549571
 H      2.3975665189     -1.6638602194      5.0331933825
71
# ORCA AIMD Position Step 20, t=10.00 fs, E_Pot=-89.74797133 Hartree, Unit is Angstrom
 C      0.4560176232     -1.6183649427      3.1870015071
 C      1.7882835774     -0.8674622492      3.1983215429
 C      2.8160874439     -1.9369548879      2.4459501003
 C      4.2790811980     -1.5285040741      2.4223927612
 C      4.6012432426     -0.8568618552      3.7546393359
 C      5.8170831562      0.0279287566      3.3552134562
 C      5.6618288648      0.2044798811      1.8083599849
 O      4.4487104714     -0.4219411847      1.5082685726
 C      6.6989529673     -0.4888351376      1.0022213289
 C      6.7317790209     -0.1657971182     -0.4901036805
 C      7.1005518381      1.3832679886     -0.5417048457
 C      6.9621497595      2.0791077240     -1.8501806993
 C      8.1105241633      1.7616471071     -2.8501608639
 C      8.4595834362      3.0056018904     -3.6130844282
 C      8.5840054568      4.1901827281     -3.0282168218
 C      9.1257528147      5.3717745753     -3.7996532776
 C      7.9114762347      6.3443694225     -4.0731209668
 C      6.9852159063      6.5620157258     -2.8663617463
 C      7.6403281984      6.0717588940     -1.4992901628
 C      8.0291161341      4.4968980626     -1.6699893484
 C      6.6842497212      3.5712137621     -1.5499232586
 C      6.0366757900      3.6390376399     -0.1257648844
 C      6.2165942843      2.2410684094      0.4195072233
 C      5.6376853989      1.7348119766      1.4916996926
 C      4.5739564933      2.4683666211      2.2348580927
 C      9.1533996146      4.2532507811     -0.6454093806
 O      7.1136594655      5.8990908050     -5.1651616598
 C      7.1787931979     -0.6164499743      3.7890163673
 N      3.6066489110     -0.0581865622      4.4453200315
 C      2.3382964422     -0.6415857867      4.5713572941
 H      0.0438017219     -1.7713343414      2.2023093299
 H     -0.2395561564     -0.9738687622      3.7235080841
 H      0.5748994738     -2.6247900049      3.6847643380
 H      1.6856530334      0.0920934494      2.7628022594
 H      2.5057841838     -2.1296062199      1.3841986921
 H      2.6759524530     -2.8016337406      3.0289887995
 H      4.8352825764     -2.3597453593      2.0041586796
 H      4.8454082599     -1.6836196326      4.4157737326
 H      5.8679214558      0.9973335262      3.8714049586
 H      6.5999875094     -1.5660779778      1.1273378919
 H      7.6526284809     -0.1548048316      1.4892448209
 H      5.7217976612     -0.3022023565     -0.8497669611
 H      7.4271679005     -0.8325318486     -1.0660194564
 H      8.1540073551      1.5932753692     -0.0865436091
 H      6.0028086359      1.7378324780     -2.3167000685
 H      7.6212129331      1.1127506386     -3.5630222940
 H      8.9817882087      1.2571737908     -2.4508906577
 H      8.9338212258      2.6997829043     -4.5395134560
 H      9.5810438404      5.0139101204     -4.6837399902
 H      9.9050526635      5.8456294520     -3.1753273615
 H      8.2717738383      7.3508933170     -4.4693032541
 H      6.1568076132      5.9045761973     -3.0546026648
 H      6.6239443042      7.5853189175     -2.7111881495
 H      6.9423749941      6.1845944890     -0.6419320082
 H      8.5978096248      6.6161587260     -1.3279433472
 H      6.0835154200      3.9648418176     -2.3483750690
 H      5.0246928167      3.9537965041     -0.1830194117
 H      6.5829857616      4.3891642846      0.4433367459
 H      4.2793587155      3.3110632645      1.6282489953
 H      4.8787719997      2.8282730601      3.1935995541
 H      3.7824071387      1.7564192873      2.3143110086
 H     10.0588300719      4.8888387557     -0.7567221649
 H      9.4771572595      3.2604620543     -0.8115856555
 H      8.7694655380      4.3486479181      0.4202746578
 H      6.9370233740      4.9468899618     -5.0943649922
 H      7.4749577202     -1.3942769835      3.1630678857
 H      7.2203562915     -0.8330152939      4.8833992435
 H      7.8525492616      0.2230094883      3.6058781805
 H      3.4703811317      0.7389433792      3.8391139560
 H      1.6757494963      0.0850096840      5.1048417298
 H      2.3703129541     -1.5884260114      5.1146818614
71
# ORCA AIMD Position Step 40, t=20.00 fs, E_Pot=-89.69229395 Hartree, Unit is Angstrom
 C      0.5056282153     -1.4978873932      3.2618852019
 C      1.8462071137     -0.8092367583      3.2327626985
 C      2.7825440313     -1.8145891780      2.6170156253
 C      4.2703122847     -1.4857633709      2.4370003528
 C      4.6571141827     -0.8371509311      3.8494009296
 C      5.8368903140      0.0347464222      3.4240947327
 C      5.6541918469      0.2644528261      1.8709527783
 O      4.4626456940     -0.4771634725      1.5230716136
 C      6.7874508797     -0.5109176192      1.0494019203
 C      6.7052452372     -0.1432523227     -0.4360348136
 C      7.0914776790      1.3412012164     -0.4375915643
 C      6.9913857399      2.0522962138     -1.8350616576
 C      8.0873935158      1.7401649436     -2.8185981672
 C      8.4511565749      2.9776604603     -3.5456357620
 C      8.5806895568      4.1932880742     -2.9951978014
 C      9.1304402282      5.3226628198     -3.7603265208
 C      7.9617965623      6.3127098778     -4.0870404466
 C      7.0061790310      6.5328709166     -2.8127775797
 C      7.6262764931      6.0927212738     -1.5522603644
 C      7.9776748422      4.5880606616     -1.5905170415
 C      6.7455591481      3.6033256043     -1.5260227935
 C      6.0152903651      3.6408744478     -0.1781380894
 C      6.2285723642      2.2170858128      0.4020928558
 C      5.6844543126      1.7177847789      1.5370093895
 C      4.5776910516      2.4563549874      2.2600659344
 C      9.1773635880      4.3366279937     -0.6050303593
 O      7.1225413330      5.8661778257     -5.1130044391
 C      7.1776221055     -0.5194874539      3.7588370480
 N      3.6491767060      0.0551521239      4.4256152649
 C      2.2879949121     -0.5591419724      4.7345391339
 H      0.2384870316     -1.6302462143      2.2363724527
 H     -0.2753965316     -1.1267196923      3.8755351043
 H      0.6653856271     -2.5648510130      3.7477908535
 H      1.8134922532      0.0501035612      2.6304687126
 H      2.3133638621     -2.0617635181      1.5884081070
 H      2.8012947896     -2.7059427174      3.1630735209
 H      4.9969051689     -2.3104214290      2.4902997860
 H      4.9678136693     -1.4514833487      4.6715189934
 H      5.5666752602      1.0092804609      3.8881103913
 H      6.6222501558     -1.5745791024      1.2018038441
 H      7.8501551606     -0.1992358003      1.2640198375
 H      5.7673092313     -0.3242712403     -0.9279801153
 H      7.5222595659     -0.7727331715     -0.9463551914
 H      8.2653819297      1.2569869516     -0.2023192808
 H      6.0769052195      1.5919394457     -2.3101420885
 H      7.8839521439      0.9256504296     -3.5100640757
 H      8.9958109543      1.4075328339     -2.2999915300
 H      8.7939567157      3.0223800123     -4.5843175537
 H      9.5023151853      5.0623119239     -4.6991951730
 H      9.8873226356      5.9240960595     -3.2126315026
 H      8.4703178820      7.3142191915     -4.4085426266
 H      6.1031189376      5.9680965139     -2.9671706693
 H      6.6660327417      7.5703313232     -2.9663310483
 H      6.8885230425      6.3252916660     -0.7069193312
 H      8.5029869899      6.7793528126     -1.2864347674
 H      5.9875478755      3.9120219063     -2.2264855798
 H      4.9830565875      3.8010017995     -0.2216304267
 H      6.4588881997      4.3393917091      0.5334589686
 H      4.0421569600      3.1663822510      1.6690601123
 H      4.8393175468      2.9333930704      3.1711811299
 H      3.8062611755      1.7464947562      2.4744915968
 H      9.8599398665      5.1939284419     -0.8283878425
 H      9.6366568194      3.4118924240     -0.6706465597
 H      8.8001352780      4.4428769304      0.5072673551
 H      7.0265952272      4.9028658081     -4.9960806605
 H      7.4999977006     -1.3141123617      3.1890316091
 H      7.0660487164     -1.0869471660      4.7549313817
 H      7.9852086708      0.2052126135      3.8713861735
 H      3.4430355489      0.8894050360      3.9163395700
 H      1.7368360213      0.1817924641      5.3701006687
 H      2.4666915409     -1.4416920261      5.3472532589
71
# ORCA AIMD Position Step 60, t=30.00 fs, E_Pot=-89.70626590 Hartree, Unit is Angstrom
 C      0.5114742915     -1.4211530144      3.3355917578
 C      1.8634790025     -0.7764752949      3.4052973750
 C      2.7788410483     -1.7734169300      2.7382036348
 C      4.2061818721     -1.3645920730      2.6468705495
 C      4.6950843105     -0.7467129798      3.9334276658
 C      5.8478385605      0.0996224502      3.4474113154
 C      5.7881932340      0.2203116714      1.9252835636
 O      4.4814977281     -0.4909687184      1.5280539794
 C      6.8500840360     -0.4993712844      1.0909011242
 C      6.6856038244     -0.0850645918     -0.3504380831
 C      7.1120835692      1.3371444923     -0.4407793592
 C      6.9800365449      2.0394177369     -1.7682953983
 C      8.1115535851      1.7388565165     -2.7834189063
 C      8.4966148275      3.0192711035     -3.4854925040
 C      8.5271901114      4.2116323113     -2.9054042162
 C      9.0772000143      5.3386680065     -3.7555223639
 C      7.9725108992      6.2736308217     -4.0193160055
 C      7.0460562447      6.5146809718     -2.8904971846
 C      7.5999691715      6.0867441927     -1.5548484610
 C      8.0046647420      4.5759779681     -1.5787231188
 C      6.8136902984      3.6266189143     -1.4709127304
 C      6.0519185339      3.5204526146     -0.1643227875
 C      6.2387391117      2.1680794032      0.4440047922
 C      5.6071677155      1.7223512718      1.5090150556
 C      4.5508686164      2.4620967512      2.2770068495
 C      9.1176497768      4.4491310565     -0.5593882242
 O      7.1625666713      5.8186326208     -5.0860659596
 C      7.2124040849     -0.4797807831      3.8246718076
 N      3.6856719561      0.1520108346      4.5118945334
 C      2.3936895006     -0.4109188980      4.7636530085
 H      0.0542314554     -1.5063235822      2.3627652264
 H     -0.2024783602     -0.8200661510      3.8441244971
 H      0.6837108491     -2.5329954884      3.6555980601
 H      1.9380689200      0.1118444885      2.8022034770
 H      2.3104895566     -2.0568783000      1.7310288253
 H      2.7648140418     -2.6556724674      3.3572095073
 H      4.7338930693     -2.3662247052      2.3142497784
 H      4.9001638733     -1.5652390513      4.6266308383
 H      5.8600488428      1.0577136073      4.0645614659
 H      6.7094648096     -1.5894570561      1.1980340227
 H      7.8874805125     -0.3227801941      1.4849603133
 H      5.7168945491     -0.3149808350     -0.7549306453
 H      7.4703691841     -0.6078256795     -1.0172074392
 H      8.1785999443      1.4845773843      0.0437698476
 H      5.9438735507      1.8646758360     -2.1573309206
 H      7.9531677777      0.8422759001     -3.3793858271
 H      8.9379387450      1.6112202368     -2.0957003024
 H      8.6922982386      2.8100071298     -4.5487869672
 H      9.5580240689      4.9895923787     -4.6275108251
 H      9.8939385982      5.8237614486     -3.1628563603
 H      8.3818854552      7.2870039080     -4.4251605008
 H      6.1264949816      5.9780056891     -3.0639113952
 H      6.8633190237      7.5999826680     -2.6855664060
 H      6.8174551606      6.2115296735     -0.7391684962
 H      8.5786507759      6.6518487098     -1.3678743922
 H      6.2035295952      4.0247185471     -2.2918095988
 H      5.0194312283      3.6747665212     -0.4262720004
 H      6.2483344711      4.3455172278      0.5199792709
 H      4.1052812142      3.1597622973      1.6106005625
 H      4.9823850911      3.0326762988      3.0720794969
 H      3.8823091655      1.7475821448      2.6566208721
 H      9.8885793871      5.2651214398     -0.7747374169
 H      9.7117631139      3.6148300428     -0.7052111983
 H      8.8423896468      4.5790410725      0.5781911672
 H      7.0363301841      4.8684529618     -4.8960512291
 H      7.4841048822     -1.0838592425      3.0696337379
 H      7.0355685281     -0.9925633245      4.8317035535
 H      8.0171859967      0.2390169608      4.0066020223
 H      3.6189440905      0.9437571209      3.9081729936
 H      1.6741178814      0.2820715641      5.2735272094
 H      2.4493519864     -1.3618607474      5.3138062843
71
# ORCA AIMD Position Step 80, t=40.00 fs, E_Pot=-89.72897612 Hartree, Unit is Angstrom
 C      0.4400427272     -1.3362566735      3.4205744513
 C      1.8416434688     -0.7223913234      3.4805804336
 C      2.7521710387     -1.7871015272      2.8538912340
 C      4.1688499212     -1.2884504539      2.7321384718
 C      4.6853894339     -0.6256671926      3.9944952951
 C      5.9670419418      0.1795938270      3.5092544681
 C      5.7859210805      0.2016606781      1.9270201952
 O      4.5573083323     -0.4472479821      1.6294526366
 C      6.8912282817     -0.5057772367      1.1482059463
 C      6.7435677249     -0.0677324010     -0.3128643020
 C      7.1290416112      1.4225636591     -0.4072339413
 C      6.9695488684      2.1214726722     -1.7490999290
 C      8.1467248744      1.8064387590     -2.6402260200
 C      8.5048454106      2.9976429128     -3.4405473319
 C      8.5396577310      4.2215323701     -2.9352585733
 C      9.0894509406      5.3310763025     -3.6929367476
 C      7.9503856990      6.3170619106     -4.0610850119
 C      7.0342946309      6.5524666396     -2.8649417740
 C      7.5818775639      5.9866765325     -1.5459468444
 C      8.0568870460      4.5366024423     -1.5359297840
 C      6.8641854885      3.5658074253     -1.4077136593
 C      6.0309615622      3.4706269236     -0.1228322220
 C      6.2272527642      2.1512743389      0.4940949080
 C      5.5120561686      1.6221993356      1.4913537305
 C      4.5644212913      2.5028373047      2.2605582217
 C      9.1353106792      4.5411380128     -0.4985803294
 O      7.2155077819      5.7453506865     -5.0990524408
 C      7.2592182207     -0.4766872193      3.9618265524
 N      3.7928800085      0.2480916518      4.6810119113
 C      2.4894408157     -0.3110501713      4.7725569007
 H      0.1723491735     -1.2637349978      2.3824248033
 H     -0.1628904240     -0.7777379205      4.1246033551
 H      0.2409946308     -2.3282267294      3.9264785634
 H      1.7202236792      0.2446142465      2.9293434039
 H      2.5400577557     -2.0442528000      1.7847732110
 H      2.7167158294     -2.7035782789      3.4740140901
 H      4.7945918472     -2.2754688533      2.5515104580
 H      4.9734553551     -1.4455903170      4.6951190613
 H      5.8805387629      1.2826405021      3.8036720254
 H      6.6725038643     -1.5728596664      1.1529391935
 H      7.8798178577     -0.1224154735      1.4483482742
 H      5.6655208497     -0.0791836995     -0.4118004474
 H      7.1968357287     -0.8298679596     -1.0005354326
 H      8.1762102905      1.5727436239     -0.1065275710
 H      6.0215133337      1.7377171403     -2.1833248028
 H      7.8969216520      1.0026167873     -3.3654155405
 H      9.0256923407      1.3985751773     -2.1216683552
 H      8.9586489026      2.8803550125     -4.4517755162
 H      9.4634303124      4.9133353152     -4.6233025218
 H      9.8716505438      5.8418474206     -3.1042855724
 H      8.3406969976      7.2845702016     -4.4621442080
 H      6.0693157037      6.1469366277     -3.1975856628
 H      6.7852377132      7.6571692796     -2.8028111826
 H      6.8717882763      6.2402346374     -0.7019042139
 H      8.4435320609      6.6969335008     -1.2762511781
 H      6.1676904409      3.9766712086     -2.1822753284
 H      4.9794282701      3.4402529640     -0.4515325059
 H      6.2255988326      4.2904178501      0.5639253569
 H      4.0329213768      3.1543254607      1.5901831464
 H      5.0802058216      3.0721859655      3.0149925175
 H      3.7466310952      1.9397207179      2.6596853723
 H      9.8742653185      5.3729408800     -0.6190154240
 H      9.5435220344      3.5611658636     -0.5395169799
 H      8.5883957243      4.5704237153      0.5278150144
 H      6.9234151592      4.8326184921     -4.9210639384
 H      7.6688735362     -1.2523251071      3.3725209596
 H      7.2932206307     -1.0353908581      4.9419034796
 H      7.9094080652      0.3875090602      3.9501058681
 H      3.6617123080      1.0468932657      4.0773054918
 H      1.8988172492      0.5121744071      5.2447099864
 H      2.5922538676     -1.1129306742      5.5419169872
71
# ORCA AIMD Position Step 100, t=50.00 fs, E_Pot=-89.71930439 Hartree, Unit is Angstrom
 C      0.3362297711     -1.1931959766      3.6097597156
 C      1.8132160110     -0.7191173770      3.4913066964
 C      2.7392251859     -1.7343494270      2.8930096924
 C      4.2464598781     -1.2827466821      2.7914372345
 C      4.7910982275     -0.4936326972      4.0662801113
 C      6.0278008911      0.1593641450      3.5368814660
 C      5.7514245326      0.2025381616      1.9965139553
 O      4.5540343176     -0.4307880973      1.7661536413
 C      6.9278035457     -0.4691780504      1.1667474553
 C      6.7494691077     -0.0368845000     -0.2761230154
 C      7.1889915810      1.4099928257     -0.3573403661
 C      7.0159580573      2.1112482993     -1.7182959802
 C      8.1786206993      1.8232347271     -2.5868422091
 C      8.5744329916      2.9816126126     -3.4030008916
 C      8.5912066010      4.2014569523     -2.9214033018
 C      9.1180865207      5.3900585312     -3.6761201340
 C      7.9493473522      6.3279984358     -4.1036090237
 C      6.9735876157      6.5934361046     -2.8214963973
 C      7.5301134612      5.9802945508     -1.5439248361
 C      8.0578849985      4.5218194862     -1.5438899634
 C      6.8091943027      3.5812042288     -1.3432925258
 C      5.9688445057      3.5147606864     -0.0621084442
 C      6.2159960302      2.1357700754      0.5454667005
 C      5.4867681859      1.5760813336      1.4799567558
 C      4.5479034608      2.5309676889      2.2063560210
 C      9.1426569834      4.5034586535     -0.3903969007
 O      7.2520322244      5.6809364695     -5.1681758883
 C      7.3516918608     -0.4468087905      4.1054792593
 N      3.9007573973      0.3757366161      4.8061963318
 C      2.5061678829     -0.2154324254      4.9096614571
 H     -0.0483583900     -1.2397564527      2.5529233719
 H     -0.3822212709     -0.4844609445      3.9983648776
 H      0.3487812190     -2.2582411523      3.8074540682
 H      1.8199679224      0.1275393290      2.7085415201
 H      2.2710720310     -2.0571861015      1.9658590549
 H      2.7644289819     -2.6655725098      3.5579810949
 H      4.9209742512     -2.0832737924      2.9067506586
 H      5.1121592791     -1.2032032898      4.8770120993
 H      6.0169541145      1.2328480136      3.9429674754
 H      6.9397237277     -1.5449050787      1.3872892034
 H      7.9087868086     -0.2530175954      1.6045570329
 H      5.6819721299     -0.0114599712     -0.5558508141
 H      7.1902661824     -0.7030132588     -1.0213576138
 H      8.1631068825      1.5150685889     -0.1092468389
 H      6.1622602321      1.7576220504     -2.2830886635
 H      7.7956499256      1.0540389086     -3.2930670475
 H      9.0409945637      1.4025602399     -2.0335058354
 H      9.0783443694      2.7579087868     -4.3669307558
 H      9.6158884701      5.1219837104     -4.6528129847
 H      9.8963088871      5.9286580351     -3.1334674413
 H      8.3662999256      7.2046469753     -4.5405984056
 H      5.9945627783      6.0991713021     -2.9772106079
 H      6.8893768906      7.7011225082     -2.6924006304
 H      6.7295888981      5.9802037916     -0.7865891131
 H      8.4110120297      6.5976343915     -1.2657869955
 H      6.0975062424      4.0591768205     -2.0650885905
 H      4.8631655423      3.6249383642     -0.3018976900
 H      6.1168524375      4.3302024651      0.6533007997
 H      4.1890440643      3.2976267183      1.5354694591
 H      5.0854555759      3.1123675289      2.9811847987
 H      3.7498038814      2.0444150893      2.7393231121
 H      9.9004831465      5.3185515386     -0.5032440609
 H      9.7706120262      3.6173692727     -0.2167961453
 H      8.5859510831      4.7985251204      0.5269611706
 H      6.9742287664      4.8550369798     -4.7299188272
 H      7.6288746122     -1.2992198541      3.4731432993
 H      7.1456896962     -0.5538055049      5.1730343340
 H      8.2328557879      0.1990961194      4.0829069372
 H      3.8725408798      1.3250990007      4.4650493343
 H      1.8966238851      0.5763719048      5.3342369200
 H      2.5155524442     -1.0712372676      5.6230042902
71
# ORCA AIMD Position Step 120, t=60.00 fs, E_Pot=-89.70330424 Hartree, Unit is Angstrom
 C      0.3027278890     -1.0593785486      3.7002740306
 C      1.8368547916     -0.6130062059      3.6013716331
 C      2.7863248075     -1.7208419426      2.9457069915
 C      4.2939093123     -1.2862090792      2.9842454019
 C      4.8635268516     -0.4401127807      4.2089018587
 C      6.1264351422      0.2087086051      3.5747369424
 C      5.8294898119      0.2124317592      2.0622591081
 O      4.4841613259     -0.4603862633      1.8552542922
 C      6.9236194729     -0.4362563298      1.2305459902
 C      6.7502963481     -0.0368645412     -0.2647518810
 C      7.2061840391      1.3992988124     -0.3020409975
 C      7.0444121914      2.0920346604     -1.6288354678
 C      8.2196002815      1.7752499050     -2.6254239135
 C      8.7186352977      2.9766283328     -3.3842638745
 C      8.6826500929      4.2257578845     -2.8721033523
 C      9.1371332275      5.4797683424     -3.6878970839
 C      7.9066747179      6.2998993697     -4.0795727265
 C      6.9863649340      6.5781004972     -2.8662264177
 C      7.5074167813      5.9910866663     -1.5207634903
 C      8.0431549427      4.5016907905     -1.5138082167
 C      6.7279490839      3.6524174100     -1.3242049533
 C      5.9360605781      3.5674744747      0.0349517277
 C      6.2377152850      2.1795059940      0.5237957455
 C      5.5078237099      1.6505655473      1.5238519133
 C      4.5347740132      2.5462191333      2.1809414821
 C      9.1020178744      4.4742218367     -0.3086632236
 O      7.2879826868      5.6326182301     -5.1897773628
 C      7.4032338516     -0.3938409073      4.2110022569
 N      3.8910480411      0.4480447906      4.9052553804
 C      2.5157957027     -0.0864893537      4.9546540814
 H     -0.1592344675     -1.1847932792      2.7150467011
 H     -0.2485610278     -0.4150892206      4.4445336363
 H      0.2472055658     -1.9044392454      4.3652100423
 H      1.9540844942      0.2861708187      2.8990707274
 H      2.4634241538     -1.9996877177      1.9780250372
 H      2.7746500174     -2.6217516174      3.6584180977
 H      4.7772929910     -2.1844412529      2.7189159307
 H      5.1051707317     -1.2779674223      4.8985815147
 H      6.1968388035      1.2391661216      3.9506436652
 H      6.7954624299     -1.5141274336      1.2495234345
 H      7.8242664445      0.0600282652      1.5216812097
 H      5.7090048182     -0.2350978696     -0.5756949388
 H      7.4834856590     -0.5232577568     -0.8291315046
 H      8.1239257887      1.4872983968      0.1244999827
 H      6.0897992654      1.7918226680     -1.9924714314
 H      8.0745014146      0.8617692060     -3.2319012369
 H      9.0820338537      1.5342731682     -1.9536047764
 H      9.0267904526      2.6980793068     -4.3986164460
 H      9.7383450390      5.0999388794     -4.5757389142
 H      9.7186875327      6.0532442343     -2.9928185266
 H      8.1888954508      7.2237843865     -4.4500948869
 H      5.9373010477      6.2470019922     -3.0950020695
 H      6.8486658150      7.6360979710     -2.6056030120
 H      6.7032221487      6.0605390794     -0.8007597871
 H      8.2259824593      6.6630585896     -1.0686464906
 H      6.1104271097      3.9713425303     -2.1835485706
 H      4.8650531656      3.7266519439     -0.2990949103
 H      6.3078782686      4.3124745135      0.7396581141
 H      4.1187786396      3.2387079702      1.4438899855
 H      5.1593927554      3.0615957086      2.9408222222
 H      3.6695687139      2.0121003262      2.5793496909
 H      9.8233477695      5.1945669318     -0.6625736739
 H      9.6043518713      3.4652535539     -0.1301677677
 H      8.6775065761      4.7602991079      0.6186965103
 H      6.9440997825      4.7729979328     -4.8804610396
 H      7.4814098606     -1.5464519091      4.0872036620
 H      7.1686910194     -0.4224329401      5.2598935329
 H      8.3099654628      0.1577331467      3.9822131874
 H      3.9723061740      1.4298639955      4.7108733343
 H      1.8209877267      0.5689605236      5.4203656595
 H      2.5764327267     -1.0258221118      5.5339439012
71
# ORCA AIMD Position Step 140, t=70.00 fs, E_Pot=-89.71101644 Hartree, Unit is Angstrom
 C      0.4159174512     -0.9122228134      3.8994666146
 C      1.9032035700     -0.4859534012      3.6702351095
 C      2.8168558889     -1.6423796576      3.1366558331
 C      4.2661570681     -1.2455263178      3.1283296348
 C      4.8556545663     -0.4697618581      4.3313389477
 C      6.1724369338      0.2855401480      3.6795683848
 C      5.7888874752      0.2767430407      2.0757823047
 O      4.5147578505     -0.4504404552      1.9668387611
 C      6.8654759471     -0.3975601785      1.2406875522
 C      6.8366835532     -0.0681914304     -0.2150056966
 C      7.1648524354      1.4544630827     -0.2340087082
 C      7.0639395049      2.1309376367     -1.6094766201
 C      8.2772910937      1.7875347419     -2.5742272564
 C      8.8086414036      3.0058849087     -3.3515546269
 C      8.7601861644      4.2397939283     -2.8525782347
 C      9.1312476536      5.4900845636     -3.5829558541